<?xml version="1.0"?>
<VTKFile type="UnstructuredGrid"  version="0.1"  >
<UnstructuredGrid>
<Piece  NumberOfPoints="1289" NumberOfCells="2183">
<Points>
<DataArray  type="Float64"  NumberOfComponents="3"  format="ascii">1 1 0  0.8 1 0  0.8 0.2 0  0.74 0.2 0  0.74 1 0  0.66 1 0  0.66 0.2 0  0.6 0.2 0  0.6 1 0  0.4 1 0  0.4 0.2 0  0.34 0.2 0  0.34 1 0  0.26 1 0  0.26 0.2 0  0.2 0.2 0  0.2 1 0  0 1 0  0 0 0  1 0 0  1 0.5 0  0.5 0 0  0 0.5 0  0.8 0.6 0  1 0.25 0  0.75 0 0  0.25 0 0  0.2 0.6 0  0 0.25 0  1 0.75 0  0.74 0.6 0  0.26 0.6 0  0.66 0.6 0  0.34 0.6 0  0.6 0.6 0  0.4 0.6 0  0 0.75 0  0.4 0.8 0  0.6 0.8 0  0.34 0.8 0  0.66 0.8 0  0.26 0.8 0  0.74 0.8 0  0.2 0.8 0  0.8 0.8 0  0.4 0.4 0  0.6 0.4 0  0.34 0.4 0  0.66 0.4 0  0.26 0.4 0  0.74 0.4 0  0.2 0.4 0  0.8 0.4 0  0 0.125 0  0.6 0.7 0  0.4 0.7 0  0.66 0.7 0  0.34 0.7 0  0.74 0.7 0  0.26 0.7 0  0.8 0.7 0  0.2 0.7 0  0.6 0.3 0  0.4 0.3 0  0.66 0.3 0  0.34 0.3 0  0.74 0.3 0  0.26 0.3 0  0.8 0.3 0  0.2 0.3 0  0 0.875 0  0.875 0 0  0.6 0.5 0  0.4 0.5 0  0.66 0.5 0  0.34 0.5 0  0.74 0.5 0  0.26 0.5 0  0.8 0.5 0  0.2 0.5 0  0.4 0.9 0  0.6 0.9 0  0.5 1 0  0.34 0.9 0  0.66 0.9 0  0.26 0.9 0  0.74 0.9 0  0.2 0.9 0  0.8 0.9 0  0.125 0 0  1 0.125 0  0 0.625 0  0 0.375 0  0.375 0 0  0.625 0 0  1 0.375 0  1 0.625 0  1 0.875 0  0.1 1 0  0.1 0.45 0  0.4375 0.09375000000000001 0  0.5491071428571429 0.1004464285714286 0  0.5 0.75 0  0.5 0.25 0  0.9 0.45 0  0.5 0.45 0  0.9 1 0  0.90625 0.5625 0  0.3125 0.092125 0  0.7 0.09775 0  0.1170454545454545 0.1170454545454545 0  0.09062500000000001 0.3125 0  0.1046875 0.8500000000000001 0  0.8125 0.09062499999999998 0  0.1046875 0.6499999999999999 0  0.8974638526119403 0.1557369402985074 0  0.909375 0.3125 0  0.902625 0.6695 0  0.909375 0.8125 0  0.0876719353281853 0.5503438706563706 0  0.112999487704918 0.75 0  0.4875 0.35 0  0.5 0.9 0  0.5 0.6416666666666667 0  0.0922398585849324 0.213205330051848 0  0.2131975686856072 0.09223104227570743 0  0.4854166666666667 0.5458333333333334 0  0.9113541666666667 0.9065833333333333 0  1 0.0625 0  0.9375 0 0  0.478515625 0.16796875 0  0.0625 0 0  0.9211806728406513 0.07881932715934865 0  0 0.9375 0  0.8752498273500179 0.2362588484097049 0  0.8685552157706846 0.7427674985562789 0  0.624181471531473 0.07827540547457316 0  0.1257308467741936 0.9257308467741936 0  0.475 0.8250000000000001 0  0 0.8125 0  0 0.6875 0  0.8530988620169683 0.9469011379830318 0  0.45 0.95 0  0.54375 0.84375 0  0.55 1 0  0.8581987351190477 0.8606390438988095 0  0.2 0.35 0  0.1303125 0.375 0  0.8729567307692309 0.3790865384615385 0  0 0.0625 0  0.9411513524489923 0.2111143603287854 0  0.37 0.1349095451911935 0  0.1404439003514829 0.2636497530754754 0  0.06193620260906506 0.9026683953004602 0  0.9352223942518553 0.7292130316425539 0  0.77 0.1411696428571429 0  0.06515625 0.3922916666666667 0  0.05649974385245898 0.71875 0  0.05766140201890593 0.7833502684431478 0  0.09375 0.05666924095322153 0  1 0.9375 0  0.74 0.75 0  0.66 0.75 0  0.26 0.75 0  0.34 0.75 0  0.74 0.25 0  0.66 0.25 0  0.34 0.25 0  0.26 0.25 0  0.74 0.8500000000000001 0  0.66 0.8500000000000001 0  0.74 0.95 0  0.66 0.95 0  0.34 0.8500000000000001 0  0.26 0.8500000000000001 0  0.26 0.95 0  0.34 0.95 0  0.66 0.55 0  0.74 0.55 0  0.74 0.35 0  0.66 0.35 0  0.26 0.35 0  0.34 0.35 0  0.26 0.45 0  0.34 0.45 0  0.26 0.55 0  0.34 0.55 0  0.34 0.6499999999999999 0  0.26 0.6499999999999999 0  0.74 0.6499999999999999 0  0.66 0.6499999999999999 0  0.74 0.45 0  0.66 0.45 0  0.06075050492066701 0.153802884092412 0  0.1590481241326227 0.0557266430806512 0  0.9362666137645235 0.3704602850414409 0  0.63 0.1426955076732481 0  0.6 0.55 0  0.5417234848484849 0.575 0  0.5625 0 0  0 0.4375 0  0.5358861019736841 0.1967722039473684 0  0.3753308465030262 0.06748776899798252 0  0 0.5625 0  1 0.8125 0  0.8125 0 0  0 0.1875 0  0 0.3125 0  0.6875 0 0  0.3125 0 0  1 0.5625 0  1 0.3125 0  1 0.4375 0  0.4375 0 0  1 0.1875 0  1 0.6875 0  0.1875 0 0  0.8649171564195298 0.6146611098553345 0  0.5384758784347949 0.5123355294203207 0  0.8666385135135135 0.508277027027027 0  0.5349264705882353 0.3051470588235294 0  0.5476875136671769 0.3661405942488519 0  0.1348919978931412 0.5052160042137177 0  0.2 0.45 0  0.1478646281954497 0.5660586265244431 0  0.6 0.25 0  0.2628941879099874 0.1346958243594377 0  0.05 1 0  0.95 1 0  0.1748214406214138 0.1422240139240407 0  0.05082936193536093 0.09626001654438013 0  0.4645833333333333 0.6958333333333333 0  0.4 0.75 0  0.6 0.6499999999999999 0  0.5475694444444444 0.6749999999999999 0  0.4 0.6499999999999999 0  0.05977347204105338 0.6063880389530888 0  0.8 0.55 0  0.7543303827092511 0.06387775330396478 0  0.4952566964285715 0.06454613095238097 0  0.953125 0.59375 0  0.953125 0.53125 0  0.4249238268598747 0.1490539977152499 0  0.5746018361779457 0.1501985408263929 0  0.04687500000000001 0.46875 0  0.525 0.95 0  0.4 0.25 0  0.5530220103578154 0.7310440207156308 0  0.5448313382120682 0.7871045777012305 0  0.4604166666666667 0.2958333333333334 0  0.4500000000000001 0.775 0  0.45 0.225 0  0.8 0.45 0  0.953125 0.46875 0  0.4604166666666667 0.4041666666666667 0  0.4 0.45 0  0.5485638027554639 0.4221276055109278 0  0.4588848039215687 0.4927696078431373 0  0.28125 0.0460625 0  0.04957914457613563 0.8389678568082881 0  0.05034652909183934 0.6631744249647181 0  0.8354629106460149 0.1486511183595445 0  0.8687103683856185 0.1019373053987612 0  0.05837113488502795 0.2623149794167095 0  0.1469506692860948 0.3205839812533298 0  0.8564978002434206 0.2904098728700704 0  0.8557348154922564 0.7970859894427574 0  0.84375 0.04531249999999999 0  0.9546875 0.28125 0  0.9546875 0.84375 0  0.954387499813259 0.7808149997292254 0  0.7157144306406976 0.1505515063508273 0  0.1440845659293744 0.1899933835481674 0  0.4591573984526113 0.5988555770470665 0  0.1406143271857923 0.6973592122395833 0  0.2 0.6499999999999999 0  0.1406143271857923 0.8026407877604167 0  0.2 0.8500000000000001 0  0.1497844819376297 0.6201213952561067 0  0.150779722629521 0.8779814271749756 0  0.8 0.35 0  0.9534926828518924 0.15625 0  0.8 0.6499999999999999 0  0.3164229879471266 0.1468833674473905 0  0.9513125 0.64725 0  0.8531900681281802 0.6910675550542457 0  0.8524136513899588 0.5622964631853502 0  0.8 0.25 0  0.4 0.8500000000000001 0  0.45 0.875 0  0.15 1 0  0.2 0.95 0  0.4984288637329933 0.1181258636267007 0  0.080316911592373 0.9515888605970008 0  0.04531250000000001 0.3419972020506963 0  0.15 0.4265826822916667 0  0.8466422387846915 0.425 0  0.5446855639577259 0.04874081328960156 0  0.4 0.55 0  0.0403457595315419 0.53125 0  0.925 0.9556402370465358 0  0.4 0.35 0  0.671409773722391 0.05173180642936177 0  0.2 0.75 0  0.5550351783713012 0.6243926799931061 0  0.6 0.75 0  0.8 0.75 0  0.2 0.25 0  0.6 0.95 0  0.55 0.2449988499468271 0  0.2 0.55 0  0.6 0.35 0  0.55 0.89375 0  0.6 0.8500000000000001 0  0.4 0.95 0  0.45 1 0  0.8 0.8500000000000001 0  0.8 0.95 0  0.8500000000000001 1 0  0.6 0.45 0  0.9403349325034623 0.4203531079068566 0  0.59375 0.03881520015730601 0  0.21875 0.04098854337004394 0  0.4505246402825702 0.6479792519796292 0  0.3307424874114532 0.04600783576082304 0  0.8622182813973092 0.1893386563561249 0  0.04636404796851835 0.1994766804689636 0  0.08526136840804338 0.5005529849562099 0  0.5079387074254554 0.3940735203793944 0  0.9134910508913169 0.4964107724746023 0  0.3 0.525 0  0.7 0.525 0  0.3 1 0  0.3 0.8250000000000001 0  0.7 1 0  0.7 0.8250000000000001 0  0.3 0.275 0  0.7 0.275 0  0.3 0.725 0  0.3 0.775 0  0.3 0.6749999999999999 0  0.7 0.725 0  0.7 0.6749999999999999 0  0.7 0.775 0  0.7 0.425 0  0.3 0.425 0  0.3 0.475 0  0.3 0.3250000000000001 0  0.3 0.3750000000000001 0  0.7 0.325 0  0.3 0.225 0  0.7000000000000001 0.225 0  0.7000000000000001 0.375 0  0.7000000000000001 0.475 0  0.7 0.625 0  0.3 0.625 0  0.3 0.575 0  0.7000000000000001 0.575 0  0.3 0.9249999999999999 0  0.3 0.8750000000000001 0  0.7 0.925 0  0.7 0.8750000000000001 0  0.9054920725380531 0.8596441663401723 0  0.9611846822365844 0.90625 0  0.04603210447711271 0.04603210447711271 0  0.4206699150657059 0.04687500000000001 0  0.1075341068281199 0.5951970760070512 0  0.71875 0.03420414991824499 0  0.9109740921124259 0.6233754536673588 0  0.9559983349381073 0.1097471082265306 0  0.8902923389674765 0.04397855273619065 0  0.7974203439578933 0.04679312514337464 0  0.9108077898653103 0.2661009828047 0  0.9531036220894082 0.3274299395296419 0  0.1036223080069974 0.169123963986828 0  0.5420775565967842 0.4670702772907297 0  0.2204192303916675 0.1567270213041477 0  0.2599211768762639 0.08786272773217418 0  0.8693891934336337 0.3338829233803225 0  0.5143544532465405 0.7065187645848685 0  0.455529484444006 0.4483968846468434 0  0.8409576121205781 0.4704042202061874 0  0.9552299602684694 0.04477003973153065 0  0.1695992224324477 0.09848945181210766 0  0.44375 0.3380208333333334 0  0.5926101737959292 0.1095622143704763 0  0.9080805254070086 0.7664440285233571 0  0.529106648580831 0.1517579520964279 0  0.156499743852459 0.7607438239617277 0  0.09879338181594434 0.7089839861174778 0  0.4627460917475009 0.03552325462010024 0  0.8445142418966276 0.9031118084510878 0  0.6718809675178341 0.1572750521549349 0  0.5034824632620398 0.5974564719713071 0  0.443197164067349 0.5579376967139872 0  0.1604498278836214 0.4693584605691668 0  0.09607630437120575 0.8061608230620171 0  0.4892578125 0.208984375 0  0.4340389784946237 0.725 0  0.08603018626765258 0.3549939047823426 0  0.8343143523751818 0.225 0  0.9562992330927339 0.6907897766626712 0  0.6570126119550282 0.107782864021322 0  0.7375766198315545 0.1153058630737724 0  0.0992692025416934 0.2714871046821563 0  0.1635869993980734 0.2278755037913708 0  0.4977038127426299 0.5065249318639793 0  0.9027067652059534 0.1965221267748656 0  0.03769376505812522 0.9585949879534998 0  0.1123987528026906 0.4113855115494208 0  0.8901004265778262 0.7082310719339735 0  0.05160941649570759 0.3021180039558626 0  0.9162626857031994 0.1194181476650942 0  0.9661527349206646 0.9616721879365316 0  0.4422085385727342 0.1854597380363671 0  0.29794
[...]
<PointData  Scalars="f_937"> 
<DataArray  type="Float64"  Name="f_937"  format="ascii">6.1262367095888592e-01  6.1264110170895414e-01  8.8299414099849793e-01  8.7383325554621061e-01  4.3125069133539978e-01  4.3121772241578643e-01  8.7454171135178183e-01  8.8907433056753771e-01  6.2064770117858692e-01  6.2064146218868654e-01  8.9157794022714187e-01  8.8236179559453265e-01  4.3599516233991747e-01  4.3601337501377979e-01  8.8657185626270685e-01  9.1203053576227855e-01  7.3504954746836182e-01  7.4532087453966755e-01  1.0000000000000000e+00  1.0000000000000000e+00  7.2245858034019828e-01  9.9999999999999989e-01  8.2298856053308422e-01  6.8734537635614934e-01  8.4113155732943856e-01  1.0000000000000000e+00  1.0000000000000000e+00  7.9135772488782774e-01  9.0018355757669744e-01  6.4731497983021591e-01  5.3878380647159740e-01  5.4473075765613688e-01  5.3877810153442363e-01  5.4473652507792814e-01  6.9630553227847114e-01  6.9631644245800328e-01  7.7114181347326416e-01  6.4556059186155512e-01  6.4556764642415732e-01  4.6686780118146692e-01  4.6177033063635131e-01  4.6687172803505178e-01  4.6176662463344381e-01  7.5604804854694929e-01  6.3724219176294350e-01  7.7495121457255645e-01  7.7486004926649243e-01  6.7747382528303302e-01  6.7007626765071215e-01  6.7748058168727399e-01  6.7007054137164945e-01  8.4243328832105913e-01  7.6513327415060339e-01  9.4799279915867574e-01  6.6760799511939428e-01  6.6760580968099348e-01  4.9409330827966946e-01  4.9954881228360692e-01  4.9409015371957099e-01  4.9955200558218915e-01  6.5901560661189973e-01  7.7180582273552367e-01  8.2557049810287997e-01  8.2593871634633431e-01  7.5997243693939776e-01  7.6832381520607707e-01  7.5995814519788885e-01  7.6840424763518689e-01  8.1601119090778318e-01  8.7431784442189309e-01  7.5441793382857303e-01  1.0000000000000000e+00  7.3194484321076192e-01  7.3197109822098705e-01  5.9695883352554291e-01  6.0355061452685543e-01  5.9695494248425862e-01  6.0355456946763286e-01  7.2255081538203569e-01  8.1486134952372924e-01  6.2998295676446281e-01  6.2995716772433508e-01  6.2372807496717120e-01  4.4587399185866305e-01  4.4100240783269262e-01  4.4587863580796039e-01  4.4100584901346962e-01  7.4391767907448791e-01  6.2184512595761043e-01  1.0000000000000000e+00  9.1474367448526794e-01  7.9398895066553488e-01  8.5836388614040449e-01  1.0000000000000000e+00  1.0000000000000000e+00  7.7639871027116092e-01  6.7959174065318861e-01  6.2508197733706294e-01  7.4097450528997533e-01  8.3429663138732646e-01  9.4752952023358106e-01  9.4260146776902365e-01  6.5904295986547556e-01  8.5758516072484803e-01  7.4651504927050727e-01  7.5620158438967422e-01  6.1568433820362556e-01  7.0316715786060036e-01  9.4953240347888701e-01  9.4041855090849968e-01  9.4919932845151056e-01  8.7678869081862287e-01  7.5507229681858878e-01  9.4450756992426277e-01  7.8677196633060520e-01  9.0263812456530146e-01  8.1205787556494680e-01  6.7024460563158139e-01  6.3813733992480026e-01  8.0901702970615652e-01  7.6867894689863325e-01  8.0314483615746712e-01  6.3308531980943417e-01  6.8690821556882031e-01  9.1208143435205669e-01  9.5504859634078343e-01  7.1820040586644318e-01  6.2410896677693639e-01  9.5502736799152210e-01  1.0000000000000000e+00  9.0514345062613133e-01  1.0000000000000000e+00  9.4906754324010834e-01  7.4852649379607783e-01  8.5542859529396154e-01  6.5182282107552680e-01  9.5393515062398315e-01  7.4595305264628464e-01  6.4407234745806941e-01  7.6200237001127846e-01  7.8179130488561710e-01  6.1916496108810593e-01  6.2688421382652404e-01  6.4053453498351887e-01  6.2295591879990320e-01  6.2971673623410829e-01  8.5781311435310237e-01  8.5483661974250669e-01  7.7841558673230871e-01  9.7369176420053649e-01  8.6740762446116582e-01  9.2493606792640215e-01  8.9136821661614540e-01  7.5070991391013564e-01  6.5483762318735472e-01  9.1464347059182327e-01  8.5222576871879285e-01  7.7563107652190144e-01  7.6541665684660820e-01  9.7546422915660580e-01  6.1764906331658698e-01  4.7644374610657059e-01  4.7643892374118235e-01  4.8170244462999462e-01  4.8170729480831537e-01  8.1193042223729395e-01  8.1206774152331707e-01  8.2070576974920539e-01  8.2123030227176230e-01  4.4998233843228402e-01  4.4997712309377147e-01  4.3477079134003371e-01  4.3480142667509059e-01  4.5495269467818228e-01  4.5494859943743349e-01  4.3964315305663781e-01  4.3961557536307405e-01  5.6610260836309811e-01  5.6609920335142494e-01  7.1279115666275206e-01  7.1278816018578806e-01  7.2066735202989285e-01  7.2066355531070814e-01  6.3851592843233107e-01  6.3852240605856725e-01  5.7235729013807091e-01  5.7235384442785808e-01  5.2051474034635392e-01  5.2051820352118028e-01  5.1482684008226565e-01  5.1483026478544480e-01  6.3154450272135232e-01  6.3153794992119283e-01  9.3589530923565800e-01  9.7450633176426082e-01  7.8208725886366615e-01  9.1631923968153550e-01  7.1324557190240778e-01  7.0743795586499181e-01  1.0000000000000000e+00  8.3990270513313769e-01  8.8805950966392877e-01  9.6255568607338171e-01  8.0770176389066495e-01  6.3495006439166446e-01  1.0000000000000000e+00  9.2341135710007238e-01  8.7848580357487149e-01  1.0000000000000000e+00  1.0000000000000000e+00  6.9966683603106761e-01  8.0749014340367387e-01  7.4800924935780611e-01  9.9999999999999989e-01  8.7696734268381371e-01  6.6216179673518771e-01  1.0000000000000000e+00  6.8573881225477751e-01  7.3027890221303837e-01  7.2253828076534254e-01  8.2619772717716311e-01  7.9414762899406921e-01  8.1796137166036020e-01  8.2813113260558946e-01  8.0250559088108531e-01  8.5434358317503001e-01  9.2834193389050834e-01  7.4319317627464199e-01  6.1491245185927390e-01  9.3550683221646036e-01  9.5939712383420817e-01  6.7158018926042384e-01  6.5576500738667931e-01  6.8110921236298105e-01  6.7671677843624400e-01  6.8109596792584381e-01  7.9718368393652528e-01  7.0404042041905357e-01  9.6102681227665609e-01  9.6346736097412844e-01  6.9176395808441582e-01  7.1325778164229703e-01  9.1701499195240355e-01  9.1434260097389053e-01  8.3076810794465983e-01  6.2747416208392603e-01  8.5518232786042536e-01  6.6242819874776682e-01  6.5061080326111298e-01  8.3140059059298921e-01  6.5290320078534769e-01  8.7232190876747673e-01  7.4288667675017372e-01  7.3753071541629223e-01  7.7623611714643803e-01  7.5250244056095350e-01  7.6762694727236214e-01  7.3787246071064616e-01  9.7560907279300513e-01  7.5808272470602101e-01  7.8584727650120112e-01  9.0946933708856359e-01  9.3649123720938743e-01  8.9511266374075282e-01  8.7130620903912304e-01  8.2413716336139620e-01  6.4030347006246846e-01  9.7186366797601031e-01  8.2708916768823826e-01  6.3189732462286929e-01  6.4313851982282777e-01  9.0622579346572263e-01  9.1858531342457161e-01  6.9957728188605561e-01  7.7615277311215514e-01  7.8108845908784130e-01  7.5951492423878597e-01  7.4954500166510685e-01  7.9055551831537307e-01  7.4954315310264508e-01  7.8943731512802351e-01  8.9922149989139954e-01  6.7235559836749337e-01  9.1675349285418095e-01  6.7554812533978814e-01  6.6381068263392384e-01  7.0247990457287102e-01  8.4571739601476015e-01  6.3697206958517472e-01  6.3562703453721292e-01  7.3835888922955895e-01  7.3911168781548242e-01  9.3316145998071842e-01  7.4565627248561417e-01  8.6834488314066749e-01  8.3832907706384552e-01  7.5638179386921922e-01  9.7210569565871674e-01  7.1324372079598419e-01  8.1482139333714643e-01  6.1887916362312345e-01  7.9933966762493591e-01  9.6894042248186496e-01  7.6346793373039812e-01  6.9105731567549356e-01  6.5576689202710414e-01  6.4733895154827692e-01  8.9206499543454176e-01  6.2456242446160792e-01  8.5967990485083701e-01  8.0261767468065559e-01  7.9920268566339514e-01  6.3310941036438595e-01  6.3697092011736589e-01  6.2453152159195346e-01  6.2296417474265575e-01  6.2875334970550478e-01  6.1647212538582852e-01  6.1493489083850783e-01  7.5246861323971104e-01  7.5875562331451818e-01  9.7742017139137449e-01  9.7981924306932566e-01  6.8424536991833829e-01  9.7483812778761647e-01  8.8403047132542489e-01  9.1845365170987325e-01  8.2136756117027154e-01  7.8152174319550760e-01  7.2742367585522949e-01  5.8872914316341129e-01  5.8229549058377705e-01  4.3682437428870402e-01  4.6151785675940188e-01  4.3207348708981058e-01  4.5647513011887242e-01  7.9562820322716143e-01  7.8693300811740263e-01  4.9127457282774289e-01  4.7491260205778124e-01  5.1070580789252940e-01  4.8590639735566155e-01  5.0512516200228064e-01  4.6972335971527335e-01  6.5166538602892221e-01  6.5886573754894162e-01  6.2185467474103095e-01  7.4549235066300135e-01  6.9999277507680191e-01  7.3734456170468199e-01  8.5018903029701287e-01  8.4093435386210658e-01  6.9234282311480122e-01  6.1505890414220088e-01  5.2749930409513768e-01  5.3332728114109784e-01  5.5928110462453573e-01  5.5316938190112153e-01  4.4325867492948112e-01  4.5100591697434994e-01  4.3841820928046565e-01  4.4607833451866696e-01  6.3041935358993684e-01  6.2301608171464962e-01  9.8045606827238074e-01  9.7382258488590656e-01  7.9802465468615480e-01  9.7922406596259814e-01  6.8343147491435530e-01  9.2772519366312123e-01  9.7204039399782050e-01  9.7131034634902402e-01  8.3733989540657350e-01  8.0280756797930941e-01  9.2861226301324307e-01  7.4828311125719327e-01  9.2411719392892078e-01  9.5421528077818740e-01  8.0096767185090878e-01  6.6919050632623944e-01  7.5618306924848899e-01  7.3675659352142941e-01  9.6985279748792530e-01  9.5484094292624255e-01  8.0815115785313796e-01  9.3667178122913164e-01  6.4701775240671833e-01  9.1380372489223960e-01  7.6473951126055228e-01  7.7606063654887225e-01  9.8001363752006876e-01  6.2361338111551201e-01  9.0337409235244859e-01  7.0056500709321745e-01  7.1281937450932231e-01  8.2581386968550663e-01  7.6105634503799058e-01  8.8137090767127291e-01  6.6334855742931820e-01  8.6308580753966391e-01  8.6284748446072812e-01  6.6356945930740130e-01  9.3536649393375226e-01  9.2940691406026710e-01  8.9058602882127669e-01  9.0308958838836573e-01  7.3303318745475354e-01  8.7796248614517503e-01  7.4647951048034189e-01  8.4478408530725113e-01  6.6020493993689577e-01  8.8143642090064345e-01  9.2389977496708786e-01  6.1716817380504851e-01  8.9597334425220165e-01  8.9056920835565900e-01  9.2821725896798923e-01  6.5021298712959252e-01  6.5466028189935388e-01  8.4892056397630633e-01  8.4255004533461531e-01  9.3584825530964577e-01  6.4284913445245628e-01  6.3820019583009491e-01  8.1416953579613904e-01  8.1089993331598631e-01  7.6967555282758859e-01  9.3990870372215729e-01  9.7658112402520914e-01  7.1492865728216037e-01  7.4232936247335912e-01  7.5048764203859464e-01  7.4485122896362488e-01  7.8719389951506946e-01  7.8186139256082210e-01  8.0528419884998537e-01  6.7415241806420856e-01  7.4139788480314406e-01  6.3435936759045131e-01  7.9268012811163024e-01  9.3475516028331551e-01  9.5835449551978436e-01  8.7905463898248404e-01  7.5441546682393412e-01  7.8843862249057339e-01  8.4941765123200097e-01  6.2856028867088609e-01  6.2521628700474796e-01  8.2317783281921697e-01  4.3929272767365724e-01  6.2880240665114351e-01  4.3446339766685788e-01  6.3036996930346390e-01  7.7004585733859854e-01  7.6987015938658299e-01  8.3845617765726188e-01  9.6252460845352328e-01  8.4763506406337685e-01  6.8125265618145903e-01  7.6622069423749406e-01  6.5440499267127106e-01  8.8912739603072111e-01  8.5923994924620861e-01  6.4627257554843776e-01  9.0474702503989313e-01  7.4473619628642795e-01  6.2717126721329297e-01  6.7567561567809820e-01  6.1829978969592014e-01  7.2590937612637074e-01  7.2402147089166780e-01  9.0731599993923018e-01  9.3437595492969028e-01  9.0960664045626183e-01  8.4657607747355645e-01  6.3672786171039464e-01  6.4442444453274528e-01  6.4374474649127922e-01  7.5524759072085279e-01  7.5123796307445767e-01  7.4943347932019477e-01  8.0665007969231928e-01  6.2249538060650422e-01  6.1606862484973668e-01  6.2528646308960367e-01  6.2241369037995009e-01  6.6296571376347557e-01  8.5880176699839550e-01  6.3523600971393424e-01  8.5742818848311630e-01  8.6595068033326650e-01  8.8058824760305665e-01  6.9205376436601229e-01  9.3553702202758648e-01  8.4042213061894311e-01  9.4872304480617231e-01  6.2668892786208585e-01  9.1160614325360179e-01  9.0560854214956044e-01  8.8049371752539229e-01  6.4973310258115102e-01  6.6279067755671950e-01  7.5415949509132107e-01  7.5404256914589118e-01  9.4370431401438726e-01  9.5454632084285540e-01  9.8129266930000913e-01  9.5720217941306385e-01  8.5340764577675965e-01  8.4286768567283599e-01  8.7052528845618049e-01  8.7805911293700889e-01  9.4158798949176437e-01  6.6546737393192212e-01  6.7066432238511253e-01  7.3599438476132972e-01  7.1550023616889469e-01  6.9213164851001263e-01  7.8649062561324479e-01  9.9999999999999989e-01  7.5919403516372763e-01  7.8052777539724216e-01  7.3745658519340340e-01  9.8107140771860635e-01  7.7064315909414227e-01  7.6637087847222651e-01  6.9260961295000101e-01  6.5046530070977115e-01  6.5495816830654718e-01  6.3328032730978867e-01  7.7044753808744371e-01  6.7808150886082896e-01  8.0063873206642444e-01  9.6113181761928401e-01  6.2671329386935126e-01  1.0000000000000000e+00  9.8103855881342861e-01  9.0266189326785140e-01  9.2347836468294153e-01  8.8753444571955442e-01  8.9787848844401852e-01  9.6232306985841121e-01  9.2258282353163557e-01  9.4775615244698308e-01  9.3851096247061894e-01  9.3367446238133156e-01  9.1143864453598844e-01  8.1447588559419981e-01  8.2708760355981592e-01  9.8329626557591099e-01  1.0000000000000000e+00  9.6953203922136078e-01  8.0830661183098107e-01  8.4516904144764315e-01  1.0000000000000000e+00  9.8680296826746727e-01  9.4853362736331304e-01  9.6981973172265856e-01  8.5211380301242234e-01  8.9090000975499106e-01  9.2316220226187817e-01  9.5652735730460348e-01  6.7984334620238973e-01  9.8697810018170795e-01  9.0535900773935274e-01  8.9862109081006780e-01  6.1896457346260647e-01  7.6233208312091305e-01  7.6596063803758052e-01  7.7627014677513961e-01  7.7182958412982461e-01  7.8055746265482928e-01  9.3445739847156106e-01  1.0000000000000000e+00  9.3509122467632788e-01  6.3623440848622825e-01  9.8464847929085964e-01  8.9709746987171968e-01  8.7276773349169201e-01  8.9916974552327800e-01  6.2702438512271397e-01  9.4867142462095277e-01  7.4772319705542023e-01  1.0000000000000000e+00  6.3257310491712393e-01  8.4919539932026156e-01  6.8525454019918519e-01  9.6431841487621861e-01  6.9996734612704414e-01  7.1112368213895860e-01  7.1264947218114549e-01  8.7944042803282840e-01  9.7731548852387207e-01  1.0000000000000000e+00  7.9241801921534694e-01  7.8768095824537732e-01  6.7054433627342980e-01  8.9021549897156182e-01  9.2311273243003233e-01  9.4454893850376975e-01  6.3758127583426649e-01  8.2218968152665817e-01  7.1856298692394716e-01  9.7138606616142098e-01  7.9311415417835318e-01  8.0345453020529822e-01  8.9605923580079438e-01  1.0000000000000000e+00  9.9999999999999989e-01  7.4638623297344386e-01  1.0000000000000000e+00  1.0000000000000000e+00  6.2109421568285483e-01  1.0000000000000000e+00  1.0000000000000000e+00  8.1516594248917429e-01  8.6822851408386914e-01  8.9559478583444418e-01  6.4081094926424798e-01  6.2970645329321984e-01  8.2403118383349838e-01  1.0000000000000000e+00  7.5800383970140883e-01  1.0000000000000000e+00  8.3124954149579044e-01  7.2534378709473946e-01  7.0261796928293885e-01  7.3489294122133886e-01  7.1073021043545415e-01  6.8928764242062990e-01  9.6074171872299563e-01  6.1486083173549544e-01  7.9160874857193320e-01  7.6185234822493197e-01  1.0000000000000000e+00  9.0279988719429027e-01  9.2971405520356842e-01  7.8678539113872803e-01  7.7988836366824910e-01  8.5344977996279980e-01  9.0835320838618494e-01  8.1005984652526242e-01  8.0450388954497054e-01  7.9534424406839055e-01  9.0663768689743784e-01  7.5569407950888179e-01  7.6985604387896100e-01  9.5709455634916452e-01  8.4012739944713721e-01  7.5964249620148017e-01  6.2987384357043852e-01  8.9446525720070580e-01  7.9168315886187302e-01  6.2021033449332486e-01  9.2894271991319655e-01  8.9159050514040683e-01  7.9897303547856502e-01  9.6926477533825561e-01  9.2055459220539415e-01  6.5377201062669577e-01  9.4624854976273576e-01  8.6590269837951450e-01  6.4544723010690630e-01  8.2327503213782338e-01  7.6547834868027631e-01  6.9430414823564246e-01  7.5542597347860396e-01  9.1119757271465185e-01  7.0455408087732596e-01  7.0236034878483289e-01  7.3679476058522708e-01  8.9117018178361518e-01  6.2092960784962692e-01  6.9945272243769541e-01  8.3696201456936503e-01  9.4764020857806208e-01  7.7575008847175464e-01  7.6406733406189487e-01  7.8209353060855602e-01  7.4012434744543376e-01  7.2766559519096818e-01  7.4446985339232352e-01  7.8136016994348401e-01  7.0908925975547532e-01  6.9397103568358576e-01  7.8059910709523239e-01  7.5153088199600904e-01  8.1648781267401727e-01  9.0117114770655793e-01  7.8610086381936262e-01  9.5331136026485774e-01  6.5457839983670452e-01  6.9813927800433717e-01  4.3269988202725185e-01  4.3747279014746127e-01  6.6907529744491578e-01  6.7413897701428160e-01  6.6150260014745077e-01  6.8223879680013577e-01  9.8430730195267035e-01  9.5382495023555225e-01  9.2079417614087022e-01  7.6652883321240273e-01  6.6940882184626760e-01  7.4663952112907239e-01  7.6342880548994396e-01  6.4235399509631941e-01  6.2011199234646142e-01  7.4603579216631855e-01  7.5765943683213899e-01  6.5637947697360088e-01  9.3886629987560444e-01  8.2202056314785898e-01  8.1529767561824218e-01  8.3526134702667765e-01  7.4209941866024942e-01  7.4456309113617070e-01  6.3526959076034162e-01  9.5462635734817025e-01  7.6108273098055879e-01  9.1097460344457515e-01  9.1328010221311606e-01  9.2593526478699040e-01  9.1535347664863187e-01  7.1175497742864602e-01  6.4552661197385652e-01  8.8560494161982961e-01  8.3514461100655135e-01  7.7573894824560841e-01  7.6845991187742457e-01  7.9405071068120781e-01  7.8821230178174539e-01  8.2695443394668755e-01  8.3611550894119302e-01  7.1798688890174911e-01  7.4341642862587642e-01  7.3009672574931850e-01  6.8257997550615057e-01  6.8375240531235526e-01  7.3853201333432550e-01  8.1800505891101916e-01  6.6250884840891466e-01  9.3199607185980327e-01  7.5729098462025313e-01  8.6208581043723875e-01  9.1150837253320216e-01  7.5937544323673167e-01  7.4451595598888820e-01  9.8546179084379437e-01  7.1161481630408219e-01  9.2543513284395462e-01  6.2581766082251333e-01  6.2509614731515950e-01  6.5646680466570373e-01  6.4792360017522310e-01  7.3698264734966967e-01  6.4948546580759059e-01  6.3293632170974545e-01  6.2475738484063148e-01  8.6407245235195496e-01  8.8262582455098837e-01  8.6676942745523800e-01  6.3014253909279105e-01  6.5676576805697073e-01  6.3967295581452743e-01  6.3789685472190472e-01  9.7230192762203205e-01  6.4036455238883916e-01  6.4012585873097338e-01  9.8718482321963064e-01  6.6767326672435112e-01  8.8479511700450009e-01  9.8427665416366295e-01  9.6595441583740338e-01  7.2572098789708994e-01  8.4997332245607904e-01  7.4761913344473974e-01  8.3698186223733573e-01  8.3196525777217378e-01  6.4834321315192656e-01  9.8582241722814457e-01  9.8257402734593635e-01  9.6113780164284379e-01  8.1736632583325075e-01  8.3638720166626324e-01  8.1590012405682000e-01  6.3365792643152108e-01  7.9151125369245723e-01  8.4642888674931438e-01  7.9459160959056963e-01  9.0302412381207409e-01  7.7702696793516302e-01  9.2455174426754383e-01  8.0082229519300008e-01  6.7349852761883178e-01  8.0950956992789058e-01  8.1577641595384853e-01  9.0000053680911885e-01  7.3251107150430173e-01  7.4498116147289428e-01  8.2137633984410452e-01  6.5049468262495391e-01  7.9557769981823212e-01  9.2899001141979531e-01  9.0763487410827393e-01  9.8588610988570780e-01  8.9605983934700562e-01  7.9686411534978430e-01  8.7320000617231741e-01  8.7345614598557431e-01  8.5986940143619339e-01  6.7743063683500371e-01  6.4911096374875732e-01  6.5792652953788022e-01  6.6759140335156653e-01  6.6316485122839353e-01  7.4667808880289366e-01  7.5169205415809859e-01  7.4753005098600578e-01  9.4014885782463642e-01  6.9403056246430250e-01  7.0495161153698505e-01  7.0305111776359652e-01  9.2042876278477259e-01  9.4846184135976319e-01  7.8539054302660438e-01  6.7586687795796097e-01  9.4639741892422746e-01  7.0458153842759175e-01  8.664859017083183